LAMMPS data file via write_data, version 10 Sep 2025, timestep = 9000, units = metal

256 atoms
1 atom types

-0.3465434781031682 14.786543478103404 xlo xhi
-0.3465434781031682 14.786543478103404 ylo yhi
-0.3465434781031682 14.786543478103404 zlo zhi

Masses

1 63.546

Atoms # atomic

81 1 0.560939992048188 0.9792963002943713 1.0323212283979566 0 0 0
7 1 2.680980202856713 1.0231553792325152 2.6830409678233824 0 0 0
21 1 1.3667871043025142 3.265784583469729 1.609256417042646 0 0 0
199 1 3.7872655417218315 1.64550166470134 0.38418878840937387 0 0 1
86 1 3.6954119236225074 2.98756453438515 3.1914410584068036 0 0 0
22 1 4.196441642701352 4.225315486798847 0.7296416275249482 0 0 0
83 1 1.1834460642592002 2.7267490927629314 4.164857816011999 0 0 0
20 1 5.936923993629003 2.786889961898538 1.9297622278928963 0 0 0
75 1 5.668922425412556 1.3442986603175096 4.1012792507964155 0 0 0
76 1 4.801357703751406 0.2259117931795479 2.182754536617236 0 0 0
152 1 7.895261740661741 4.031357944858673 2.0803260497957425 0 0 0
74 1 8.22179225197855 1.7444454452038043 2.978370856133236 0 0 0
12 1 8.828686340635356 2.2519407681261536 0.4694642949926593 0 0 0
136 1 6.111082148666266 3.7956320273446016 4.37816297465942 0 0 0
198 1 6.193914982461957 3.3945377012000564 -0.19750702051046964 0 0 1
251 1 7.101555966347993 0.8181195317111345 1.0075383663454462 0 1 1
33 1 13.632943986838818 2.6114359868425194 0.45483496673815427 -1 0 0
67 1 13.366725407084413 0.5418333955396792 1.7690655614585826 -1 0 0
15 1 13.63372633995191 2.975704814034866 2.981233613823419 0 0 0
28 1 10.15298346665191 3.0535597486447923 3.4282500385951837 0 0 0
127 1 10.630246153520302 1.3130891644024119 2.0725039967835266 0 1 0
80 1 12.286957501422503 1.1890411281503113 3.961333808101119 0 0 0
17 1 11.710678835082494 3.7780983597304676 1.52616002227595 -1 0 0
96 1 14.64582060363164 0.6930092361794333 3.763058061981341 0 0 0
65 1 11.716730790942744 0.5876173652596931 -0.3074754627233703 -1 0 0
124 1 9.905508975233593 0.12130022430494197 4.138630545508773 0 1 0
34 1 1.298447267458559 5.46744867755521 3.2745870367411385 0 0 0
39 1 0.4969080666311204 8.804968463465912 0.5430505178490728 0 0 0
117 1 1.7442189956984233 7.952118544062229 2.884589635377962 0 0 0
104 1 3.49707472498511 6.546191189879115 2.467195564802178 0 0 0
235 1 2.9864190198675837 8.226198516277396 -0.15944039219585354 0 0 1
103 1 4.3836430673139555 8.719443237706159 3.9852211221672516 0 0 0
229 1 1.1749886093372142 6.5912163041593885 0.9703322554383333 0 0 1
9 1 9.382972966869133 4.71681449014773 0.47100164367311914 0 0 0
101 1 5.297202676132538 5.2666871077245085 2.852665764810131 0 0 0
41 1 4.9007550535314754 6.894483655403034 -0.11630170460151626 0 0 0
91 1 8.736154134221376 8.878404838152882 2.4649690687352264 0 0 0
44 1 6.974953994298505 8.228815205594925 0.40817958810340804 0 0 0
157 1 9.56044902597574 5.242369592829424 4.114579285188045 0 0 0
43 1 5.559934612143331 7.717826998221577 2.2797631447671978 0 0 0
23 1 9.515338066049209 6.479216752485885 2.0597924879129517 0 0 0
42 1 7.0536524651900825 5.617838426381699 0.4349883265506833 0 0 0
107 1 7.511030820564576 6.575615055214372 3.6414158393937908 0 0 0
113 1 14.587754415757622 6.863247097158347 3.0742660681729332 -1 0 0
226 1 14.003868317840768 4.8516848022247 1.2942658819704154 -1 0 1
218 1 11.526282351875215 5.9985894037151475 0.2992367602638245 0 0 1
35 1 14.720627218363258 9.121010133700288 2.7825160669192983 -1 0 0
88 1 10.601226195796954 8.482780780047246 0.6887298215985469 0 0 0
185 1 10.850732732410115 7.7125272030372365 3.4267251861917796 0 0 0
92 1 12.670906444710626 7.730231556865904 1.6668467286370934 0 0 0
45 1 12.00256437893533 5.480963738771487 2.9639805455118724 0 0 0
48 1 13.888829988182867 6.898179284139882 -0.16038606629671054 0 0 0
110 1 13.007529359253763 8.403065795205691 4.359595025898577 0 0 0
4 1 2.3717432122327717 14.451053571809444 0.9124106140999166 0 -1 0
68 1 1.3116500246050966 14.267222834577115 3.692100673134834 0 -1 0
114 1 1.8158754274228825 10.329113219926466 2.1080358649862085 0 0 0
5 1 3.7298264083596475 13.41479057768657 2.6878008638267348 0 -1 0
164 1 2.010098071499554 9.947759222012095 4.611056891625645 0 0 0
2 1 -0.10254702839673566 13.70037155035893 1.9003447940903104 0 -1 0
116 1 2.8652809968477855 12.012896263033696 0.6677701678442225 0 0 0
181 1 3.9299418778341275 10.990357672326848 3.0329522623232528 0 0 0
59 1 4.297695660554315 9.770915199359042 1.1272216673635804 0 0 0
128 1 0.5900621717279457 11.66490361148755 3.6415216949546463 1 0 0
77 1 8.988502280745996 14.63941923452209 2.215899612405582 0 -1 0
56 1 4.709806363333606 13.996101159008882 0.3301459075293257 0 0 0
69 1 6.772557478354333 14.112393279023753 3.350982499993731 0 -1 0
72 1 7.782520251367389 13.191769597056433 0.6398334308535326 0 -1 0
123 1 8.655709502081002 10.052144988625107 4.423158634683135 0 0 0
6 1 5.979681635729655 11.976453069120979 4.466223267827186 0 -1 0
120 1 5.681699266519141 12.329281320734655 1.691995289929078 0 0 0
57 1 6.441813899697811 9.835122176706705 2.9951396270400044 0 0 0
60 1 8.089885497448563 11.647100061954493 2.5007411589258832 0 0 0
254 1 7.206150219157614 10.896107891210692 0.4399091496066373 0 0 1
58 1 10.339971267450391 12.013726629431245 2.9359573838654907 0 0 0
109 1 11.593582179242993 14.073244776399848 2.760404606568655 0 0 0
51 1 14.67603523994806 11.13447375552783 1.1090162494522802 -1 0 0
112 1 12.912195116883616 12.524773786196349 1.972805316452615 0 0 0
14 1 10.588720249310548 13.492202724736343 0.44720768365171437 0 -1 0
63 1 10.075724168322806 10.690307972244472 0.8636166075801877 0 0 0
111 1 13.318594344610714 10.828607601311738 3.844864532137514 0 0 0
47 1 12.125820540616727 10.1556105585932 2.15217757665567 0 0 0
93 1 14.01924221997892 13.493687430894273 4.434770069900694 0 -1 0
173 1 11.202380433192902 10.333158162310136 4.54746883154541 0 0 0
70 1 3.2099471458340814 0.3620821297324067 5.207383664537866 0 0 0
145 1 0.8282100602839868 0.5805443694629971 5.994453407810786 0 0 0
82 1 3.7710647180341965 3.414651235137365 8.351228151283463 0 0 0
133 1 2.643609715266269 1.1136068212695773 7.512431734221515 0 0 0
134 1 4.001891737683253 2.466124867281592 5.55369903004028 0 0 0
160 1 0.17031655977056503 3.063712661260875 7.9022637961359745 1 0 0
97 1 2.174513954524151 3.1322557014408434 6.746250178961269 0 0 0
132 1 0.8715344097230537 0.8921736149427444 9.026547928608451 0 0 0
90 1 8.078883543801664 2.9645113329747215 5.591839348549272 0 0 0
119 1 4.87649622601742 -0.21971153140563082 7.503153024014198 0 1 0
135 1 5.232673708750418 1.6111569848979224 8.737962866816362 0 0 0
149 1 5.927599952794299 1.9293645223088007 6.645378458439483 0 0 0
184 1 7.829317824932565 0.671046217169692 5.256916067941826 0 1 0
89 1 7.982198761917495 3.5098404646498 7.875866344147996 0 0 0
71 1 5.954669413806833 4.326710422755315 6.734022463541068 0 0 0
140 1 8.023881147440662 0.9175994588794418 7.650771294287777 0 0 0
233 1 5.928491107697901 3.405686772290047 9.31492329260872 0 0 0
30 1 14.292523914906406 3.290897936570804 5.7198450579557605 0 0 0
29 1 12.017813403347864 3.5243147809912663 4.7766613653146175 0 0 0
153 1 10.039578144224672 2.445509273885042 8.935938620955552 0 0 0
143 1 13.473404438199747 1.2142309026566247 6.148583404124007 0 0 0
158 1 12.48104542787386 3.095142545393224 7.3541798124753885 0 0 0
94 1 10.253220219583667 1.7302132363105729 6.416595410607697 0 0 0
205 1 11.349183270535505 0.026978972296250958 8.957935774652034 0 0 0
105 1 10.28518000643283 4.362450576491579 6.642968981382713 0 0 0
206 1 13.608618461065468 1.06606025024057 8.69283601207036 0 0 0
208 1 13.337522937363342 4.578021925661305 9.585750690456278 0 0 0
207 1 12.211926415868401 2.698183010397567 9.646797547337226 0 0 0
84 1 3.407542662882535 4.789412153508622 4.906653448786859 0 0 0
18 1 1.003161086099878 5.122535213736395 5.57257015977363 0 0 0
126 1 0.3347740248024994 7.671988299429698 5.236220322394968 1 0 0
19 1 1.425163894267233 6.6350504475611345 7.3444110280454336 0 0 0
99 1 4.531898369000843 8.119695597081504 6.470380574536326 0 0 0
87 1 3.739200130489521 5.8032521577346925 7.237022323423837 0 0 0
163 1 2.4500228182832906 8.799460259471516 7.052319235578565 0 0 0
98 1 2.6859358805837985 7.289632835635267 4.873217409658085 0 0 0
225 1 1.4649483606825957 7.941073465885699 9.268167599499296 0 0 0
148 1 1.125627738556183 5.287203872995959 9.305236870576792 0 0 0
165 1 3.9633519838712514 7.646449808144396 8.945585952906299 0 0 0
100 1 5.4669744573087335 6.2633957392226085 5.211236249652346 0 0 0
214 1 5.830720334524883 6.525024881234418 8.535887939490458 0 0 0
168 1 6.510815605838296 8.760396085512841 5.182806279588329 0 0 0
102 1 7.715108922074798 8.367045084982303 7.356630525573561 0 0 0
156 1 8.10594107216617 5.799480741170257 8.77839356531894 0 0 0
172 1 9.03294772872849 7.440218110505929 5.20119687502445 0 0 0
108 1 7.766792036327626 5.853899485611316 6.22960956450057 0 0 0
26 1 14.494358841738135 5.38422512729061 7.355055819875211 0 0 0
150 1 10.773786860945133 4.943505653982839 9.247199578180517 0 0 0
31 1 12.325787737667621 6.034489152096302 7.857082898885825 0 0 0
46 1 13.484965838017027 5.670842620537177 5.046126856675573 0 0 0
95 1 11.10356013378053 8.323855314448931 6.070464569938146 0 0 0
175 1 11.24147341769821 6.09542393267437 5.323498800452922 0 0 0
224 1 13.725195397173733 7.94766397974762 6.8231435103304285 0 0 0
174 1 12.313226714881827 8.378647122873915 9.111451755718834 0 0 0
222 1 10.03395656966014 6.876982690877712 7.758409653958449 0 0 0
253 1 10.171777814296165 9.46229898214666 8.234438472124804 0 0 0
176 1 14.283763341960064 9.549942576345854 8.768959155940502 0 0 0
240 1 14.01530446744653 7.038804781491951 9.291653760422179 0 0 0
192 1 3.4160155412016984 12.537911181954904 5.104782608588441 1 0 0
78 1 0.9034585500473387 12.77408540433176 5.712148786437359 1 -1 0
66 1 2.8655541880879833 13.39858608010464 7.149318790458932 0 -1 0
177 1 2.4067829084036796 11.317917343770118 6.888206015147324 0 0 0
118 1 4.474353968911023 10.124800973767043 5.71119497449888 0 0 0
167 1 1.4424275368506245 10.433258596807411 9.139750206898732 0 0 0
183 1 3.0110592303672816 14.670584949758078 9.368436264282563 0 0 0
180 1 1.0751480167603324 13.218935832763703 8.70673535288966 0 0 0
161 1 0.13460357341210988 10.086665644734092 5.898104596008917 0 0 0
243 1 -0.10082022356368164 11.510770171956835 7.883369678399005 0 0 0
141 1 8.495236822328684 12.455876741056816 4.7810743330315235 0 -1 0
188 1 6.5236788541372865 14.323026742879113 8.992780616069057 0 0 0
115 1 5.132532316975899 12.420807757272648 7.034484917862497 0 0 0
73 1 5.1833036595389785 14.037064408451737 5.051395157677942 0 -1 0
106 1 5.768477850611251 10.028383229398646 8.003238489369044 0 0 0
220 1 7.994042380054877 10.120937562333522 9.172997017696382 0 0 0
121 1 7.0634439415359305 13.890560773258423 6.665278421664493 0 0 0
186 1 7.403904069642723 10.74650404149366 6.518742020976079 0 0 0
137 1 4.833870994484837 12.588203880601162 9.626608832449357 0 -1 0
138 1 7.696814809103289 12.390185899923246 8.461236856694086 0 -1 0
122 1 9.623632709965285 11.082752231457505 6.6035150968891045 0 0 0
79 1 9.588960843653968 14.210104727419456 7.028931605398994 0 -1 0
201 1 9.11697249771174 14.335439368559985 9.575256246767458 0 -1 0
129 1 14.173934023001383 14.195414777804018 7.557269295381463 -1 -1 0
125 1 10.865732454523648 12.627720826562339 5.022820027479427 0 0 0
144 1 11.928850337878028 14.500029336990718 6.219268405360243 0 -1 0
189 1 12.722349297350972 10.14956150427494 6.638320238593429 0 0 0
142 1 11.710097456336625 12.826214002403777 7.980624925008902 0 -1 0
190 1 13.242060554442554 12.18436086855058 6.224566031860687 0 0 0
49 1 9.904247299422032 11.570722682985553 9.217702348660852 -1 0 -1
256 1 12.356247682300403 10.803434643014477 8.881211567547329 0 0 0
193 1 13.201451836261711 13.32536491855319 9.696585141527954 -1 -1 0
215 1 0.4127362107300696 4.175414033533747 14.7859020862639 0 0 0
131 1 1.8252174441165945 3.0448914342388105 9.87000158957519 0 0 0
146 1 1.6312132358921696 1.8252103072397725 12.069664678815315 0 0 0
195 1 2.058300322739286 2.5930661826675903 14.533379969379277 0 0 0
213 1 4.308091171384868 2.791825377910956 13.557181928693955 0 0 0
197 1 4.003517679523193 1.662265953773324 10.917575909897884 0 0 0
245 1 2.589145828726076 0.305429221127547 13.750209948834575 0 1 0
166 1 4.356197829755149 4.113513742601101 11.336907455962871 0 0 0
162 1 1.9247883705925952 4.243780689523423 12.360781060276745 0 0 0
25 1 7.450304517118844 1.370419117793908 10.178565802445227 0 0 -1
155 1 8.534897876410422 4.08487769415074 10.539470017919873 0 0 0
248 1 5.705848667325634 0.8605694778279747 14.243994735603035 0 1 0
11 1 7.80783079697718 1.720817184026357 13.62072426666801 0 0 -1
203 1 6.507133746305229 3.0868950824865977 11.797439663821041 0 0 0
182 1 6.0628642773142865 0.4043717764642134 11.81052753966947 0 1 0
13 1 8.940738504554666 -0.19884650659707326 14.644801010522695 0 0 -1
8 1 8.083694505478785 4.685577832631983 13.146157850549148 0 0 -1
139 1 9.748494683073512 1.1971962856127407 10.762268698805762 0 0 0
3 1 14.253680106041061 0.4730618998864691 14.094235836074642 -1 0 -1
147 1 14.554162643454207 2.7040063108073498 10.560365549575717 -1 0 0
130 1 14.210864594728745 0.3632133143185484 11.451853868979727 -1 0 0
16 1 11.999974402247524 1.2304088912340347 11.878386822496198 0 0 -1
209 1 14.494505751610482 2.7516844955257733 13.038415422315397 -1 0 0
204 1 11.39732060690085 3.868615819184095 14.382510393118306 0 0 0
221 1 12.560737296862417 3.8681343030801694 11.76291985493027 0 0 0
154 1 9.845819016199751 3.406757635160755 12.490687014269012 0 0 0
64 1 9.972434256750253 0.8972796944611672 12.897899109671187 0 1 -1
151 1 3.3441264627691623 5.622775926833184 9.843864015463128 0 0 0
37 1 3.0892543867367523 5.453965847100633 14.3887618991231 0 0 -1
53 1 1.1723410030605739 8.579782918987984 13.611602867165251 0 0 -1
232 1 2.4204829119975004 9.0118597427104 11.198130624573563 0 0 0
228 1 1.5204167742821235 6.774952388511192 11.3702677957598 0 0 0
230 1 3.6879456219767404 7.035088180208167 12.522586172422326 0 0 0
212 1 0.8527860864649681 6.180072419037127 13.634756891264212 0 0 0
241 1 -0.03539080286031476 8.962573910546979 10.901428745928404 0 0 0
24 1 5.545545763689759 9.19914458430895 14.084090654649309 0 0 -1
216 1 6.660429551344693 8.290009248947952 9.781569760291603 0 0 0
159 1 9.507920468573174 7.613271248613789 9.94250538434308 0 0 0
169 1 5.71573182001733 6.399672231266405 10.862918003920152 0 0 0
210 1 5.287796357690551 5.155406652870214 13.214311674553306 0 0 0
85 1 9.052306014335668 6.945682061572421 14.7829073476556 0 0 -1
200 1 7.924215411890129 6.381507273760175 11.4014997737876 0 0 0
234 1 7.925844805040546 9.499832505946053 11.61427751650179 0 0 0
219 1 7.173872196499494 7.418870807581792 13.316661465079237 0 0 0
236 1 8.623306501763466 9.59565040820962 14.213155477306646 0 0 0
249 1 5.0660058062298425 9.051365603972581 11.696700683296868 0 0 0
50 1 12.92494391056457 9.402332283274298 14.647792282459323 -1 0 -1
32 1 13.52005588927744 4.8088844747217525 13.906159033389468 0 0 -1
217 1 10.013898207312227 7.8058878634058 12.606930038723728 0 0 0
211 1 10.500512092014645 5.523085204377045 13.218220259457052 -1 0 0
27 1 11.915810089029415 7.293828943942499 13.567849068296278 0 0 -1
191 1 10.40780879183877 9.731957317962083 10.89452997781689 0 0 0
223 1 11.667179625569435 6.871006721389731 10.747141102501345 0 0 0
238 1 14.693584445716908 4.942516284215282 11.670980774556423 0 0 0
237 1 12.850419819549252 8.977205383616273 11.555812181831884 0 0 0
227 1 14.174872402506542 7.137462844981159 12.504554181855575 -1 0 0
231 1 3.795999483270208 10.271943545975184 9.856315461097097 0 0 0
54 1 3.026420211683442 10.169576212308895 13.347289134079984 0 0 -1
55 1 1.0764957271096602 11.01937349969045 14.451781181526245 0 0 -1
178 1 1.250359368818569 10.901876640691691 11.850254644055347 0 0 0
247 1 2.414813733743482 12.67431024989576 13.065156594174486 0 0 0
187 1 2.2773496192693785 14.564964770087965 11.391678927808403 0 0 0
40 1 2.693261795146286 12.240783026027238 10.507782372312269 0 0 -1
252 1 4.552565021766117 13.723986214604732 12.391475694642828 0 0 0
239 1 4.2940437091841455 11.393220714969882 11.931664400561367 0 0 0
244 1 0.30389998326258916 13.437590392805864 11.619187095741218 0 0 0
10 1 9.113486991156332 12.088736929857456 13.982605218994996 0 -1 -1
171 1 5.978424713066234 10.64486385903182 10.28897829364113 0 0 0
170 1 6.731198004756443 12.784960470193537 10.959668543874328 0 0 0
38 1 4.916638996020723 11.877828463555511 14.356280806391075 0 0 -1
202 1 8.210340366525207 14.401142754750982 11.764688563100474 0 -1 0
246 1 6.505082507289654 13.931427505339013 13.467721510953446 0 0 0
250 1 6.464124239059702 11.212856789191362 12.680586459183617 0 0 0
255 1 8.842631687427719 11.672146027458172 11.46569710626395 0 0 0
52 1 12.377554861288038 11.76527718137089 14.715366611551215 -1 0 -1
196 1 14.527455463123061 13.313453670943936 14.617091731585058 -1 -1 0
242 1 14.541096479563787 11.142496557167064 10.354023525541212 -1 0 0
36 1 10.642247111115664 10.42708845059997 13.48016555762939 -1 0 -1
61 1 10.367787457455265 13.788180165212868 12.807991414717485 0 0 -1
62 1 14.04820144673304 10.76987687672846 12.810883006506913 0 0 -1
179 1 11.110615404073554 13.387314757281569 10.5655838771866 -1 0 0
194 1 12.941176537808099 13.725919754727078 12.495801023516819 -1 -1 0
1 1 12.034937264791811 11.633250116480019 11.460012379509012 -1 -1 -1

Velocities

81 2.833590549227593 1.4298006924812896 6.974338582981374
7 3.8113930343302953 -2.4920062370702736 1.8066057559654525
21 -3.0169025690526206 0.8265968166211931 1.4073681680101695
199 -3.6586462811241525 -4.088641918241368 -1.727862031912661
86 3.6583105050133145 -0.0032982610409970506 3.0453058990692754
22 -0.08058755823855514 6.0423639009766354 1.123180098690551
83 -8.783214517954578 -8.629409105483647 5.129953253267476
20 1.1825641576445565 5.870002985855537 7.424857922364103
75 -0.6748024505217339 3.3424542058826554 -4.303108493528226
76 -7.0651485609269145 2.7945046449174624 -8.297250995225077
152 -1.5370955125236505 -0.9411268584273145 -1.529925610119212
74 -4.32712997932296 -2.5193247024590057 -1.6698744541089972
12 3.5605002990312116 3.661765251298792 -4.599427658455518
136 0.888393134133656 -6.698328334612156 5.662204125849287
198 4.304699931063932 -0.14400886321009057 2.999795376688837
251 1.7682003486215934 1.0656745643480001 6.513144697568438
33 4.01682862022817 -6.5579071598602745 -5.126662355616082
67 0.8412196269250686 -3.2105662588248887 5.447528342911668
15 1.3348664157216237 -5.970370818010727 -4.208276835009831
28 -0.7943230662846358 -1.8735945622112289 -1.3823089570273932
127 -9.967454400982932 -6.760410315746134 -2.5395899061368112
80 -2.2055047962150063 5.911858849150587 5.140126443092587
17 -5.773197751234435 -1.4600969882764074 -2.152997190057278
96 -1.8552068397448962 4.631927858180615 0.1542445930089398
65 -3.830658559227825 -4.244128068254416 -1.2263869176367248
124 2.8939539705129493 0.9813873218610042 2.9427395013648545
34 -7.754450472027511 3.1699854432428136 -0.6399773786019523
39 -1.8804810584373122 4.22575195357075 0.7893556543821378
117 -2.2386370054106144 -3.887487796192658 3.0980035133313106
104 6.46123296254249 -0.47003093593985046 -0.8778469923160974
235 -3.4787265115814816 -2.4238959126990793 -5.073777075700096
103 -2.164018679084923 -5.255106086861495 2.924132694828781
229 2.1694149212137375 0.7652436276582457 -1.6937429623143083
9 1.0220785089138447 -4.484107996985396 3.3872506224119148
101 -1.8388337462105646 -3.1317775438136946 -3.8834185074558625
41 3.550292567954962 3.2223490938433037 -1.3049220179634746
91 0.9395316779572357 -3.2020796676289045 3.752132801410406
44 -0.5137246347263226 -7.587178400483482 -1.1333546079415926
157 8.591920345333133 4.394423233263218 2.5590413294109178
43 1.518401235726238 5.97100933508875 -2.3754919571793565
23 5.794623892875221 -2.1265585879691993 3.4611993542980217
42 -6.253648534668127 1.8267681810409475 5.329592670623195
107 -3.9797850318092034 0.316542122734302 -1.57202979575258
113 -5.827974141707293 4.759506686377191 5.4334739678743045
226 0.6318170201002685 0.4060536361768591 5.607114119514368
218 4.361918446381303 4.571757012591168 -2.7836449702550805
35 1.4713936353429495 -4.0616709505719815 3.310142885037658
88 -0.45694622245996275 -0.9680169634487422 0.478328515249358
185 -6.670892616851421 10.51960222206166 6.855971540372405
92 -0.5297129584926262 -0.7407972584340186 0.994756088318453
45 6.456881843569928 1.1881184949256796 3.3714939705752376
48 3.4028252123454203 -2.157965513619998 0.7938137489735412
110 1.7189367020484008 4.781398576441503 -5.183907378531825
4 1.3691567303894197 3.455175922342212 2.1358431060961514
68 3.348840936459239 0.32296625837864607 11.354382159078993
114 -1.926247018463659 1.0282306491915512 -6.717336842404578
5 -2.101078815738422 -1.2939568833195663 4.948751894740636
164 10.036459231264844 4.525870258948527 -3.043081568681371
2 2.0761651435360413 3.556159982000223 3.015051989050698
116 -0.05535801380294366 -3.282750688471915 -4.7697320291878205
181 5.294318947272794 -2.165426587179929 1.7252901394057734
59 2.7010331409322714 4.182124338925092 1.3978731356314278
128 4.973672393111423 -9.578927590087927 -1.7567980511858723
77 -11.152272121609135 -1.3760831022251927 -4.681905245057701
56 -2.1394810062700844 4.758571250944049 0.23285414056498063
69 -2.225179248461245 3.1739093039571213 -1.6809379063929
72 -2.468018651472816 4.853706729113023 -4.324640305053839
123 -1.2080953393680969 1.8407534500766956 2.716667420911803
6 0.5261702450644372 9.067198433032939 8.312537954400527
120 1.3719400905049621 -2.2087853926102334 0.2629676502035484
57 0.41182379012392994 -0.6266590198739499 1.194771510029234
60 -6.944287859923356 -6.242686341640112 6.237971962401846
254 -5.949114090226028 -3.904444907306207 -2.3224484123518705
58 3.9725346644547077 3.246174611672 2.828376135589255
109 -0.25768000686161663 4.829493467686823 -3.4991336497558696
51 3.0569544460342684 4.459127574362809 -0.7547496688603345
112 -2.4404265411019366 -1.1124570406515895 -3.327794106939257
14 3.1411356178570076 -3.1092658375375217 0.29847103953826326
63 1.9218730461096103 1.087161936777103 3.7786660664787726
111 -0.23225734005429122 0.873048559678476 -4.006757591601704
47 -1.692917982022791 -4.7815996533945855 2.894713250581632
93 -2.865459118138322 -5.138703837767988 -2.6504589867249897
173 2.6374900529620766 4.7598019557336135 -1.0781433917696603
70 3.484082889042518 -0.5465137518425658 5.260656941355574
145 -2.130149293556046 -2.574741448799592 -4.811799763031646
82 2.9900662292755507 -3.6042506000903485 2.6858829547911647
133 2.118982711888737 -5.486599023528489 1.0298950222651606
134 2.807602842869508 2.9112552875680504 4.167678366296632
160 -6.448912320883288 -2.4308103864472197 0.42662351145126626
97 0.781103708002464 2.2187689684307244 12.334803247189774
132 -8.309928481309564 6.163211334001129 -0.5987040163961631
90 -2.232922512567812 2.3540550090572823 -3.505643151227707
119 -4.472872553046552 -2.114563143359244 -1.1903656629364299
135 3.658109436443292 2.1098565238893876 10.21302525361626
149 0.024866581549019207 -8.447144616688515 -4.55694746763622
184 -11.801399742601465 -1.7823271460301509 -3.2419174595734486
89 1.8968848961769171 4.899021809000124 -7.314320650971805
71 1.0840132583767872 -9.934200849215813 -1.4441318778552656
140 4.609327794471337 -5.89362043149599 -2.604078161603656
233 -3.565170709360395 0.38274258014611506 5.300250103780958
30 3.223367485462691 1.8120553843869174 -0.8749954422775122
29 0.698528747377113 -3.1051195635951374 -0.3152348282905166
153 -1.3886024839178555 4.839205454606568 -1.73164697359226
143 -0.525804406311744 -8.051753044602561 -0.981053400118087
158 -2.6698820354854154 0.3790542284112725 0.8005834779586415
94 0.5423107650787208 -10.412073184513433 1.4403751673673542
205 -4.224025531020201 5.803409347789001 1.9603650608480572
105 2.9106197607497655 -2.2892594476109114 -1.6639473914681577
206 -4.672453786889085 2.9041248092817256 -2.7953653794197955
208 1.9410697624267002 -1.0087767765411955 -5.002317505244124
207 4.857532439072382 2.985604304214897 -4.238961448386961
84 6.789516675847793 -0.9262917108448157 1.4585105154402527
18 -0.5816994859052441 -1.8065296715858778 4.484600617556926
126 2.5476535681185166 3.227235331077576 -2.753459907742703
19 -4.4326369993212005 -0.9520481870959924 -4.901606437394928
99 8.307861800738488 0.5133573040941892 -3.3178575281107516
87 -2.2415495599262756 -14.895797290171137 -3.8843926400470177
163 -0.8131041383637732 5.054453203257841 -5.857425372789137
98 4.992106463621392 2.7704676603110014 -1.547540494124002
225 8.38865460887359 4.515967478972833 -2.5392144472871463
148 -1.54498816503711 7.420991802098053 -2.6881541808049123
165 -2.589190539032067 1.9582622245883672 -0.014798179043927209
100 5.355750019407478 -6.084009625620525 -3.6405502351324226
214 0.3691187344955196 3.4917905887213503 -2.5773482884233103
168 -0.0007690444091140679 -2.383763668754106 2.0212856097306418
102 -1.342754342862182 2.072458329389054 1.102714080450112
156 -0.8752067430292296 -1.1742905395953755 5.22627005997714
172 1.8024936362816149 1.594537276830726 -3.3893849815847963
108 -0.4441405892662831 -3.4040197916494908 1.1698530925336035
26 -2.660921437782828 -2.024779672309348 -2.8714091279334526
150 -5.862368901755408 0.4165025877513763 1.091775347406652
31 0.1254295675285013 -3.3237814317175904 2.8940347059029925
46 -1.0788118604690475 -2.421560012384261 0.41791523758855315
95 -0.5493370239812422 1.548953831531029 -3.611798819467321
175 6.129668028921729 -1.4019225166022515 3.3575954196282236
224 -0.8742633667022259 1.453170657395355 -1.878221632861148
174 5.07163373507255 10.352163202864048 -4.256614010855664
222 10.902571317813868 1.9185142748933677 3.6387358522235163
253 -2.540100551975186 0.735220856242688 -0.1401805904784666
176 -3.221090663520709 -2.634256629042053 -6.929940288036344
240 -3.784693435580694 -5.7349348956861945 -0.7857993703281773
192 2.6229577647779014 0.8456697679306127 -1.1688717309040004
78 4.529309474484248 0.8368817386646795 -7.762746680828686
66 0.15700060611463734 2.348061672868318 6.566727352487805
177 -0.4688667424175213 5.3977305119125525 0.7335835834258375
118 4.088897707176888 4.418351585807849 -0.04850120094134573
167 1.420122586020622 -3.0658397898473533 4.237260195942354
183 -2.7690857931212256 0.19923556464401201 3.143325478111467
180 2.7116532964974716 0.3067972914494773 -0.2233096749196906
161 3.3372474526639757 0.7302304521065077 -0.8597553760393482
243 -7.3604092443376965 4.34244040981938 -0.5498054943166482
141 -1.1021283394794912 -2.178937280320385 -0.07590030468375507
188 -2.959386111573307 4.654233853695291 4.01127186160361
115 10.401030061895758 -3.162774270628544 1.5828117080709034
73 -1.0026837957236079 7.6025936595834 -2.214422683782886
106 -2.845449490548763 1.8882566053591727 -6.802933650937521
220 3.8869410731201217 -4.825161486913276 2.805453640741029
121 4.940636734297075 -0.5130882543918552 0.5198403196291635
186 -3.8623257753734066 7.07332231528215 -4.143063234680053
137 -0.003025789180704803 -0.15652645592896383 1.6925734056407329
138 -4.608549193712115 1.602982096496164 -2.5502367343963686
122 -3.8483803762039326 2.5874332612652937 -4.012410111118106
79 0.49216947246566783 1.1629542824027892 1.3226724999410415
201 6.421432687121899 0.798117595674844 -1.4687475081063968
129 -2.30952882245841 1.0307550517502408 -2.7631347386702236
125 0.02427504002941713 -4.758282973163842 -2.8220021838018217
144 -0.7726366098606962 -0.3951408558051109 2.9304975213616724
189 3.722312923455485 -1.1794763278236038 0.6023492604517722
142 -2.2339783956196624 -0.298730560189877 4.500100954149108
190 1.1355759830307788 -1.7073263920867043 -2.6662749701164157
49 0.8379364483455173 -4.942104739609682 1.7659533866077923
256 2.085830517463677 4.915453554689728 -0.48686690108765873
193 -1.4088876872788474 -3.226412493648659 1.8137553482240376
215 -5.107072176690153 6.100596088069588 -4.46996471830062
131 -0.527356548416852 -3.0657791519115345 1.138367778772707
146 -2.126341740909751 -8.194602259593863 -1.8980703586095724
195 -3.963037079522446 -0.9625391587019616 1.6650230790676384
213 4.203671239342053 7.237374483304278 7.954169372535699
197 -0.7675516561356974 2.954277064322813 0.7525671762506464
245 7.442517227121338 7.021030565140662 -4.51519125053796
166 1.3952191100924072 -5.0961379236772375 0.9744269458301027
162 4.030632722387774 7.58417261691587 3.466476301027736
25 -4.769523971135096 4.374433212457455 3.7609337191627814
155 2.9973414825760525 -8.588859171370103 -5.050847470149431
248 2.880659754000897 6.1308705488353175 -4.9760656019013165
11 -5.690159967857774 -1.2763006036153481 -8.12739203898848
203 2.5970093323528927 -4.5829383695707255 -0.9920527919690352
182 -1.7190693973715427 3.3015355743323562 -1.1569781856670704
13 5.090225707232501 3.5363656191241772 0.6009803284657501
8 -3.770188088263591 6.7839774337283085 0.25442337534661386
139 1.0604045750333886 -3.163763290202959 2.3535860937470847
3 1.1353997051760825 -5.887756783877548 1.3227982410989985
147 -4.686748908581294 1.817213325675956 -3.1159164260487975
130 3.050732007910307 2.700235051611846 3.5879016755265978
16 1.7183856908806892 -9.743727986405952 -0.5534513754289309
209 -2.125066385205132 0.34123631535883664 -5.190018581909746
204 2.9516397671632078 -0.9533600708536472 3.892372188478777
221 -3.244132655275396 0.639027777790358 -8.397948129708737
154 -1.711889548435131 -4.3803285895637885 0.8098637189355905
64 -1.585339413105034 -0.4325072883774611 1.2003638679267992
151 2.3838833174128453 -0.1429990067564626 5.230596542574371
37 1.0962386863156544 -2.121670629852387 -4.599242285377894
53 -6.123429841190708 6.786892442045133 -5.557294500482668
232 -11.806115641803393 -9.022948973514481 2.4843722351135673
228 -1.3755098190011312 -9.105189862629588 0.6368081084641553